# vtk DataFile Version 3.0
Mesquite Mesh
ASCII
DATASET UNSTRUCTURED_GRID
POINTS 0 double
CELLS 0 0
CELL_TYPES 0
POINT_DATA 0
SCALARS fixed int
LOOKUP_TABLE default
